1008
Atoms. Timestep: 20000
 O 0.585071 13.7712 21.7396
 O 0.105381 17.7229 11.2937
 O 15.4904 16.9792 24.6073
 O 3.02934 8.4723 17.6278
 O 22.4421 10.2347 5.37797
 O 20.3037 11.3564 18.0279
 O 22.8262 8.40435 8.38004
 O 4.53868 6.53274 3.08391
 O 4.89447 19.1793 16.8046
 O 11.895 12.7897 23.7143
 O 18.3244 2.9398 21.5131
 O 19.0931 21.582 18.0345
 O 18.7392 13.5006 22.6678
 O 6.77759 4.08816 6.93941
 O 1.95588 8.25903 20.7074
 O 2.61754 14.252 19.9346
 O 5.10566 18.8814 24.3762
 O 6.97028 17.4999 9.68075
 O 11.9345 9.48968 21.7028
 O 7.30166 0.555508 0.817271
 O 4.24965 2.23639 18.0553
 O 22.6136 11.8126 17.541
 O 0.744505 21.1855 14.8764
 O 19.0925 24.0036 19.0481
 O 19.2217 9.52376 14.9652
 O 0.203054 10.0141 11.5706
 O 14.3595 6.2803 5.7771
 O 14.6486 17.2613 15.5943
 O 15.4125 12.6188 20.533
 O 20.9223 22.6682 20.1839
 O 16.2476 16.7234 13.0462
 O 22.3214 13.7343 19.2164
 O 14.6318 20.3866 7.11071
 O 11.7819 14.2353 17.5818
 O 22.7021 20.5092 5.60187
 O 22.7774 8.85012 12.3707
 O 19.2977 11.6606 8.3938
 O 2.76144 15.4952 15.1182
 O 23.1496 5.0671 1.66281
 O 16.2161 7.99503 8.4488
 O 13.0572 22.3084 8.59783
 O 8.6351 7.66002 4.0938
 O 0.939316 23.0567 7.84201
 O 10.906 8.88615 1.26964
 O 3.98272 9.70922 22.0436
 O 1.43531 7.99221 14.9677
 O 10.2247 10.6997 11.0612
 O 7.84204 13.5091 19.3832
 O 1.77792 23.6799 18.6907
 O 10.3758 1.87019 4.50309
 O 1.52614 10.6779 22.0084
 O 18.8399 16.1791 17.4625
 O 24.4357 16.7097 16.5734
 O 11.4097 15.6831 10.0091
 O 6.09775 4.32952 2.92773
 O 20.9734 4.56542 18.5109
 O 14.4413 9.92795 8.85086
 O 3.4616 21.7241 15.4969
 O 16.4614 18.3002 7.24063
 O 23.2794 2.48655 5.12504
 O 8.97311 9.45433 2.44772
 O 6.17522 14.5032 9.95632
 O 8.87299 2.81067 7.90706
 O 24.3373 22.187 5.86978
 O 23.3219 8.13686 19.6673
 O 1.4344 15.5715 6.945
 O 10.6784 2.62203 23.6269
 O 12.7559 17.2812 13.921
 O 13.9913 5.46292 23.5587
 O 0.429087 18.9658 13.4528
 O 19.9149 9.33461 1.38161
 O 14.7341 12.5108 11.0746
 O 2.35484 23.4742 1.71993
 O 7.26453 5.10409 21.2201
 O 4.15317 11.9859 6.57553
 O 19.691 2.03134 19.227
 O 18.6058 11.9251 5.65391
 O 13.7055 22.7481 5.9156
 O 5.81522 4.84442 19.194
 O 20.5895 4.53085 14.6579
 O 14.0324 12.0001 13.9813
 O 7.5162 18.2831 4.21626
 O 23.2931 22.8581 20.4945
 O 0.180907 2.96261 0.882772
 O 18.5838 3.31937 13.9817
 O 14.3284 0.589219 19.8181
 O 20.1562 1.18292 14.9777
 O 22.3194 22.6449 3.86275
 O 5.63449 6.00371 13.2504
 O 10.7903 3.48125 9.77049
 O 5.15867 4.185 16.5617
 O 24.5182 6.69627 13.1918
 O 2.74957 17.8076 1.98232
 O 3.08968 7.04275 9.20432
 O 4.06242 3.9967 7.30868
 O 18.1119 10.5429 12.5865
 O 10.927 17.853 22.7343
 O 12.6115 13.3277 5.20231
 O 19.765 20.066 13.1703
 O 3.89402 17.9936 11.051
 O 6.89774 9.50512 4.42479
 O 20.7783 12.0296 22.6668
 O 9.09009 17.0115 6.20202
 O 23.517 20.8494 19.1824
 O 5.16047 7.49301 0.197355
 O 16.2744 22.3576 16.1479
 O 3.73025 21.1418 23.1149
 O 21.029 0.433313 11.8622
 O 7.67327 18.0885 24.5702
 O 6.79688 10.8426 15.559
 O 5.35607 19.9178 21.6876
 O 18.2676 24.6524 5.04672
 O 13.1883 1.75866 6.53881
 O 3.25383 7.59679 6.70512
 O 12.5957 24.783 17.4729
 O 1.14223 18.1875 6.79654
 O 1.73966 23.7201 21.4761
 O 8.81086 22.9219 20.903
 O 14.9015 5.3608 19.6078
 O 21.9707 2.96009 6.85819
 O 17.9076 3.46199 6.89805
 O 15.1094 11.9199 4.77611
 O 7.82613 24.4799 16.5124
 O 6.17705 10.5517 6.61376
 O 4.15574 13.5448 8.75596
 O 20.5405 6.83197 18.9788
 O 4.75896 21.2626 17.8366
 O 0.262803 15.055 19.0764
 O 7.40585 15.3504 4.94447
 O 12.3328 6.19318 1.13576
 O 7.96166 8.38176 14.6379
 O 12.3161 9.31142 18.2705
 O 4.30519 4.94471 1.13983
 O 9.13127 13.4693 1.81032
 O 18.3005 18.3116 14.2482
 O 7.14475 1.0189 18.8659
 O 11.5507 17.7492 11.7989
 O 20.411 19.7824 21.8462
 O 16.4526 22.5804 10.553
 O 4.40119 2.45211 2.43751
 O 2.28216 19.9666 24.6194
 O 17.8434 17.0193 1.26541
 O 2.54022 16.4396 23.6345
 O 12.0746 6.26114 6.82185
 O 20.6664 21.1037 2.94906
 O 6.64575 15.5492 7.6788
 O 17.241 16.7448 23.5416
 O 5.46178 6.50032 8.06106
 O 8.25395 19.9274 13.8992
 O 13.7485 3.09116 1.92696
 O 13.4636 11.0371 0.58564
 O 9.23177 3.60542 16.3527
 O 13.9921 18.7332 11.9491
 O 8.27715 1.88614 5.52461
 O 21.4349 6.27819 16.5794
 O 16.6802 10.2836 20.1979
 O 23.5629 4.98821 11.3425
 O 6.2359 21.3341 23.8048
 O 4.60183 10.1747 24.4828
 O 16.6472 14.8702 1.18241
 O 16.956 22.3451 13.4717
 O 1.1481 21.4552 22.722
 O 12.5357 2.25248 16.7277
 O 10.8538 11.3998 1.6547
 O 19.9799 20.322 6.86494
 O 0.623576 18.6912 18.4255
 O 1.25404 2.93204 7.87605
 O 23.1769 6.53499 17.9594
 O 21.0673 7.23278 14.583
 O 18.8977 13.2433 16.9005
 O 3.22276 21.7266 10.4972
 O 3.37071 3.67959 23.4579
 O 14.5919 17.6334 19.9194
 O 5.23896 4.03255 9.26123
 O 17.0012 19.14 20.5723
 O 14.8197 18.7287 22.237
 O 3.61369 2.79307 4.8031
 O 11.4036 4.06397 15.2575
 O 18.1688 0.94117 8.11504
 O 2.42775 23.1974 5.56146
 O 11.5861 21.4658 23.9557
 O 19.042 14.2592 12.201
 O 14.998 16.4197 22.3529
 O 21.3982 22.7388 17.9381
 O 19.0196 8.50038 9.11003
 O 21.3521 2.32882 17.3937
 O 23.7635 7.92533 5.68827
 O 11.074 18.3341 1.77497
 O 2.54262 21.136 2.19147
 O 10.2329 11.7475 20.9058
 O 2.85113 4.27402 9.38856
 O 11.2875 4.18442 0.400349
 O 1.29531 4.27298 12.9151
 O 17.7384 20.8518 8.55557
 O 20.924 9.2412 19.7003
 O 8.74634 2.56942 20.8704
 O 20.7998 23.478 13.9509
 O 20.7036 17.87 14.0844
 O 21.6215 18.4963 6.70987
 O 23.5684 23.2273 15.4546
 O 21.1341 19.1196 4.3361
 O 15.5378 10.5299 12.456
 O 16.5202 17.202 18.0345
 O 7.70192 22.0786 15.3753
 O 9.65898 1.76063 14.7359
 O 12.8111 18.1078 0.029767
 O 15.6932 3.2145 12.312
 O 4.83015 5.17976 5.24189
 O 8.60889 6.40535 1.90271
 O 23.4081 11.7217 12.9027
 O 2.68359 12.7547 14.4446
 O 4.21146 0.492336 4.23686
 O 24.5107 9.40092 14.0226
 O 15.4722 9.94001 3.22146
 O 10.0195 21.608 15.1324
 O 8.63003 2.86893 1.34929
 O 3.73584 1.65263 10.6806
 O 7.54219 13.7983 21.9699
 O 10.8113 8.72938 12.1669
 O 19.0556 22.2505 14.9339
 O 7.64828 22.6306 1.35776
 O 16.9706 4.97174 24.3113
 O 19.2831 12.2922 14.2374
 O 3.83099 17.5065 5.58071
 O 18.0966 10.794 17.1851
 O 5.34797 21.4102 5.4306
 O 9.0707 24.3946 10.2579
 O 4.13801 16.0427 9.42527
 O 11.7581 0.896228 1.9842
 O 16.1057 1.50479 6.80807
 O 23.7825 5.49406 22.5454
 O 16.3396 17.4539 3.96196
 O 15.0207 4.40562 0.671963
 O 16.0617 21.4271 22.5324
 O 3.98134 15.8345 0.929063
 O 20.4869 17.234 11.1063
 O 23.5977 21.3886 9.64482
 O 3.10732 3.77537 15.5647
 O 11.7132 5.25086 23.0946
 O 24.758 9.62291 3.5721
 O 15.0154 9.64864 15.6278
 O 8.60473 18.9716 1.91171
 O 21.2539 18.7866 24.023
 O 15.6758 14.7271 11.378
 O 5.17151 14.0527 6.13849
 O 8.30155 15.8192 20.3601
 O 5.0005 16.8408 16.5968
 O 3.06265 23.7673 8.76965
 O 1.84507 23.236 16.1811
 O 11.1346 5.9762 10.9442
 O 7.29948 22.8579 18.7385
 O 22.6955 10.14 1.76064
 O 19.9666 16.8335 22.3713
 O 3.50182 1.26957 7.99827
 O 8.36371 14.7497 14.8972
 O 4.57996 8.81471 9.2772
 O 10.8009 9.12293 16.1496
 O 2.43843 1.17141 19.6169
 O 7.19017 22.3128 6.65902
 O 8.15833 0.277455 3.06426
 O 16.689 23.5383 23.044
 O 4.55199 5.19722 21.654
 O 18.4675 16.763 8.89982
 O 10.4874 12.4679 6.28746
 O 15.8567 9.94327 23.4714
 O 14.1127 18.2082 8.29279
 O 20.1151 9.8905 6.35312
 O 23.8069 20.3025 24.3248
 O 3.48093 17.8917 13.7407
 O 21.3995 0.55706 6.01732
 O 0.224277 12.3404 19.6591
 O 21.2822 4.95666 5.34259
 O 11.7619 24.7724 24.388
 O 13.7901 4.98137 14.4471
 O 7.26042 11.8695 2.05326
 O 14.2964 11.8122 22.8686
 O 8.91002 21.2336 23.5688
 O 24.3973 16.5464 8.39903
 O 22.6804 1.87085 19.8258
 O 17.6212 8.43783 2.34185
 O 0.804375 0.694557 8.888
 O 22.7595 10.7891 7.89964
 O 21.6445 22.4899 23.0267
 O 18.7373 6.46699 13.6868
 O 0.643046 14.8558 15.0261
 O 17.3044 11.7184 3.13442
 O 0.509153 8.92018 0.79723
 O 20.5603 8.75251 11.2064
 O 11.8968 10.1812 7.36477
 O 1.25081 12.3579 10.7944
 O 21.8868 6.46631 3.54223
 O 22.6263 17.2572 22.1184
 O 11.008 7.88816 3.05834
 O 18.2058 4.9337 1.78057
 O 7.05344 12.5502 11.1882
 O 24.7287 10.7181 6.08608
 O 13.8637 7.58362 21.5097
 O 20.1153 21.7882 8.7178
 O 10.6199 19.9217 7.00588
 O 21.1023 16.2692 20.0149
 O 15.5942 19.7116 9.97967
 O 6.79994 6.07855 4.92901
 O 11.2727 4.13782 5.54122
 O 10.2562 7.48378 18.0369
 O 10.396 15.0586 7.67479
 O 12.3172 20.3335 18.368
 O 15.6406 22.5153 7.73932
 O 8.66184 5.0084 14.3126
 O 3.99413 10.8744 8.92365
 O 15.2571 20.0141 3.93368
 O 13.6927 16.0975 12.0981
 O 11.7486 13.9115 1.38783
 O 17.6756 9.98378 7.01924
 O 4.24363 11.2548 15.6996
 O 1.20317 9.93831 19.2521
 O 7.60069 23.5929 23.3823
 O 8.33355 20.3776 19.0116
 O 7.77138 10.3331 13.1176
 O 17.0851 8.50938 16.5523
 O 13.9544 0.38251 2.66394
 O 10.6712 16.4227 19.0415
 O 6.5914 9.50448 1.15328
 O 1.50128 21.4222 19.3471
 O 24.1345 21.4345 12.0509
 O 12.8264 0.51601 9.2408
 O 11.2609 20.7322 9.41459
 O 9.79143 23.0136 7.4873
 O 13.9273 2.498 10.6589
 O 13.8625 14.0042 21.9223
 O 8.30595 6.65641 12.5423
 O 23.8062 17.1392 5.87894
 O 20.8783 14.6825 17.5987
 O 16.5152 24.3056 3.03238
 O 18.1175 23.2199 8.95799
 O 12.0225 23.0835 13.7556
 O 24.2558 13.8001 7.49852
 O 18.4543 8.47081 19.218
 O 18.7744 16.9558 19.9081
 O 0.651326 22.9645 10.2851
 O 13.445 21.1957 10.7181
 O 6.1126 2.71609 0.486393
 O 17.4515 8.46526 22.0172
 O 1.86708 14.0922 12.7864
 O 14.5682 20.5637 17.2539
 O 21.7135 15.7854 13.1668
 O 21.4547 20.4431 19.984
 O 3.59789 3.45488 20.5374
 O 17.8112 19.1809 5.30835
 O 4.40329 12.7338 10.8256
 O 5.93514 16.2251 24.249
 O 1.76543 1.73863 22.4779
 O 12.503 10.9444 11.82
 O 21.3472 24.3087 16.1252
 O 22.5599 6.20576 7.30893
 O 0.880141 12.9007 23.8326
 O 1.85376 16.9018 9.35974
 O 23.2925 7.92077 23.2079
 O 21.8824 13.16 14.1052
 O 24.1421 16.4185 13.9248
 O 15.2971 13.6413 8.66578
 O 1.98982 24.106 23.9712
 O 24.319 23.3163 23.1201
 O 9.68764 6.44612 5.94353
 O 22.4331 10.2158 10.4848
 O 13.4751 0.524735 14.5454
 O 17.8927 9.18561 24.4844
 O 24.7474 9.96991 9.14692
 O 12.7194 20.3721 0.95569
 O 14.505 23.7509 21.9482
 O 9.32715 4.41694 22.1618
 O 20.8424 8.50831 22.381
 O 15.8466 7.17611 12.7685
 O 6.34266 17.7137 1.79883
 O 18.4766 7.63269 6.79736
 O 13.0379 6.96781 12.1984
 O 20.4768 7.88857 4.78858
 O 6.87611 8.11367 11.8405
 O 12.1062 22.9404 1.34333
 O 22.5345 12.79 6.09301
 O 19.2759 5.35105 4.00742
 O 9.65528 24.0924 1.44916
 O 14.4487 22.4676 24.4212
 O 20.3911 12.0738 20.3515
 O 14.4933 23.0221 13.1934
 O 17.7478 19.2779 0.170125
 O 8.76729 10.2686 6.65518
 O 20.4573 4.5876 1.36229
 O 7.00075 1.60402 10.1875
 O 22.906 10.5029 19.5322
 O 2.73097 7.22573 0.400715
 O 9.20244 10.8037 15.1489
 O 5.60859 24.6207 8.73913
 O 3.93535 18.4752 8.07595
 O 12.1911 16.6498 16.4233
 O 4.0257 8.04904 15.2789
 O 5.05764 13.8077 15.5478
 O 23.5685 17.6763 24.2268
 O 19.2412 3.2026 16.9006
 O 5.89703 17.9007 12.9607
 O 5.36549 6.774 17.1787
 O 6.87295 15.319 16.6161
 O 4.147 5.28938 11.1217
 O 9.08359 4.6583 24.782
 O 10.5606 0.120064 12.6352
 O 17.3213 5.57569 8.42289
 O 10.2903 6.02972 15.9173
 O 2.03846 1.67765 2.60327
 O 14.1657 5.71229 8.37663
 O 2.82509 20.726 17.766
 O 8.42473 10.2529 10.153
 O 14.0123 18.0003 5.54391
 O 23.7988 1.49542 7.32069
 O 6.97034 13.0601 6.77039
 O 0.0951611 0.467364 20.4982
 O 18.9744 5.61403 16.107
 O 24.505 3.18158 21.2137
 O 7.95527 1.60217 23.8631
 O 3.1149 12.126 23.485
 O 11.2052 1.29006 10.8099
 O 5.11773 1.85939 15.5331
 O 8.77944 17.7214 18.2425
 O 16.7049 9.73211 9.90527
 O 1.25479 8.17363 5.20274
 O 5.41844 3.50601 12.0601
 O 11.2509 24.711 7.22002
 O 19.297 2.72824 2.48822
 O 14.576 20.1228 20.5576
 O 10.7329 21.7533 5.46127
 O 17.8674 17.5049 11.5479
 O 5.96082 11.6642 22.5451
 O 2.36932 22.246 12.8554
 O 2.10935 3.45718 18.4125
 O 1.05127 20.0877 9.05092
 O 8.23848 17.2189 13.6207
 O 10.5154 5.03665 2.53284
 O 21.4043 3.45788 9.89211
 O 0.545947 19.4712 1.48036
 O 19.2676 8.26555 16.9492
 O 4.84255 13.5591 4.12645
 O 6.34416 1.89825 7.40637
 O 11.6425 17.1396 7.07728
 O 11.1592 12.1927 16.1029
 O 12.341 21.6264 15.8547
 O 13.1142 19.8428 4.86961
 O 0.309034 6.63143 24.3691
 O 9.61722 24.1783 5.11408
 O 10.5785 23.9991 15.3335
 O 17.2174 14.2864 13.8092
 O 6.47491 8.62532 23.2916
 O 18.3437 0.259502 21.0193
 O 6.23429 20.538 2.87087
 O 10.0134 11.152 8.66119
 O 19.5708 4.2458 23.9064
 O 5.11654 12.1385 13.1944
 O 5.15828 23.9926 5.9824
 O 5.76865 12.139 17.6306
 O 0.404636 7.7953 18.5554
 O 1.2058 20.2372 11.3882
 O 10.0779 19.3061 4.30756
 O 11.8101 13.3914 9.06196
 O 4.58835 18.3765 3.22405
 O 4.90306 21.6348 8.0322
 O 11.6473 10.2492 3.60867
 O 14.4241 16.1779 17.8676
 O 1.99976 14.0105 5.50866
 O 18.9691 14.1613 9.60304
 O 8.23376 20.9162 5.16741
 O 12.7882 2.45967 4.16405
 O 20.0431 10.4081 3.93227
 O 16.3394 13.2221 24.3802
 O 23.2556 20.4083 14.537
 O 22.9817 2.19865 11.5552
 O 23.7875 7.34814 2.58239
 O 15.884 15.3526 20.0873
 O 13.5384 18.0615 2.6624
 O 12.9149 0.733911 22.4011
 O 19.1834 14.4913 20.6689
 O 5.59393 13.7066 23.8481
 O 7.85504 14.6101 12.1678
 O 17.0991 21.6267 4.53162
 O 5.74495 15.1255 20.2533
 O 19.8275 14.8345 15.0178
 O 5.41886 22.7033 10.2626
 O 8.49738 7.05744 22.7497
 O 11.4276 7.97572 23.559
 O 5.57103 23.9651 17.82
 O 19.0131 6.82156 0.38014
 O 23.0648 17.2378 18.5897
 O 3.04673 6.02426 13.8487
 O 21.5252 13.6313 8.8075
 O 19.2676 1.64426 5.99671
 O 16.4414 22.0238 18.8554
 O 13.8224 11.3617 6.96409
 O 17.5546 19.3689 2.9833
 O 0.67084 17.0411 22.4172
 O 3.90242 22.9464 3.69396
 O 15.4238 6.65744 15.7203
 O 17.2405 20.3124 17.3417
 O 10.6724 10.9024 23.9613
 O 23.7877 3.0041 9.19158
 O 15.4694 1.40961 21.7067
 O 9.03658 8.76808 24.1112
 O 8.84073 23.7843 13.6586
 O 24.4847 10.4259 17.2614
 O 17.4272 11.949 21.698
 O 11.1816 15.1046 5.3604
 O 17.7619 16.3899 6.21182
 O 19.153 23.4166 23.4595
 O 1.68364 4.81005 21.9331
 O 22.5826 3.50924 24.1696
 O 10.0241 9.39939 19.9117
 O 4.2254 19.8271 12.5145
 O 18.0724 7.86916 11.6245
 O 0.513112 0.24636 1.1254
 O 12.9619 5.61903 3.75829
 O 12.1425 18.5576 20.5834
 O 23.5708 7.83006 15.4236
 O 8.20848 19.7049 16.373
 O 21.8205 10.4391 23.9987
 O 1.18835 1.95685 14.3274
 O 20.1373 3.50438 12.0477
 O 6.5903 22.9446 3.99196
 O 17.5735 12.0188 10.7219
 O 18.8693 23.1668 3.35024
 O 18.2835 1.60749 23.4772
 O 13.8571 8.44816 7.095
 O 3.34854 3.00709 13.0628
 O 5.71924 9.30524 17.2219
 O 6.54927 14.6054 1.43707
 O 9.46855 15.3064 17.1946
 O 14.903 0.99054 16.9991
 O 12.8872 11.7416 20.551
 O 13.1079 0.401538 12.1322
 O 2.07808 18.7422 4.17534
 O 17.9313 24.3834 15.2188
 O 14.3658 13.8662 6.67062
 O 19.8806 6.14671 10.5824
 O 12.6362 7.4782 16.2276
 O 11.1626 23.2557 10.329
 O 1.99907 8.6488 23.3968
 O 24.033 23.9498 17.6073
 O 21.9383 2.4148 14.4927
 O 7.58828 8.01489 6.49408
 O 15.0763 4.70011 3.27071
 O 12.2599 18.0411 9.60002
 O 23.076 0.112147 13.5422
 O 10.0385 4.92367 8.09704
 O 14.9838 6.66639 10.1148
 O 22.8929 9.59888 21.7321
 O 8.27 13.0529 17.0215
 O 6.29628 24.2474 14.3897
 O 17.1573 4.35587 17.7801
 O 0.424921 22.4621 0.490895
 O 18.8251 18.6785 18.1951
 O 7.03557 21.7053 21.5015
 O 19.1368 23.2009 12.1088
 O 12.0448 4.26392 12.4315
 O 14.0084 14.3972 0.554409
 O 17.8001 12.7748 19.0474
 O 6.62385 5.66151 11.0764
 O 9.60739 17.2615 9.97975
 O 21.915 15.4562 7.14224
 O 9.58074 6.73492 20.4284
 O 6.46895 2.91691 20.8272
 O 13.8248 12.2234 16.7196
 O 16.0829 4.23548 14.2879
 O 8.82407 19.3113 8.8022
 O 22.2477 19.4887 1.50513
 O 2.2853 5.3129 5.95327
 O 15.5575 7.2646 3.65723
 O 17.2005 5.34155 12.0021
 O 22.6965 18.2202 12.4915
 O 4.82819 0.717858 12.7386
 O 8.59749 21.5516 9.26147
 O 15.5436 12.7012 1.88894
 O 11.0528 6.04892 13.4677
 O 7.79385 9.22618 21.3151
 O 15.8793 2.16598 2.40716
 O 15.8179 4.27896 9.72359
 O 19.6335 18.9073 2.05072
 O 1.68603 1.7306 24.7397
 O 8.03642 19.1178 11.4339
 O 14.7524 8.13138 18.004
 O 1.29026 5.66276 11.0617
 O 4.29038 22.6799 19.4777
 O 7.51222 5.65557 16.8291
 O 2.73218 17.8722 16.3898
 O 15.8829 12.3221 15.2783
 O 16.0206 15.7035 8.19585
 O 0.949125 15.9204 1.03843
 O 19.9562 5.00617 7.72719
 O 9.56811 16.9623 3.41223
 O 18.7517 2.97473 9.58868
 O 0.480186 15.1667 10.7741
 O 5.38273 10.3842 11.31
 O 15.2281 2.82236 18.9619
 O 19.6077 23.6275 6.69052
 O 1.50715 20.6598 6.4033
 O 13.4179 15.9938 8.23006
 O 6.3085 15.7722 14.0825
 O 16.3952 1.74239 10.1687
 O 19.1061 21.9564 21.4489
 O 13.4165 9.31196 23.7681
 O 12.9048 19.2053 15.8636
 O 11.092 1.72288 21.7018
 O 9.98987 16.8911 0.225571
 O 15.0305 4.70868 16.8974
 O 5.03306 17.0613 19.0329
 O 10.207 13.2489 4.00353
 O 7.70363 12.7047 24.518
 O 0.113028 21.4161 17.447
 O 6.63772 18.7564 18.0869
 O 16.2126 14.2339 22.3008
 O 14.155 8.65154 10.9903
 O 20.3441 24.038 9.95518
 O 4.14625 0.367439 22.0363
 O 19.3678 19.1047 9.37255
 O 7.30645 0.412841 21.5066
 O 15.752 20.6526 12.1309
 O 16.3221 14.8164 16.3997
 O 24.3988 20.2735 3.8773
 O 14.1733 24.7278 7.50187
 O 12.1995 15.9006 24.0754
 O 2.93551 8.16582 12.7272
 O 2.85647 14.8889 11.0417
 O 22.0174 0.835556 0.250639
 O 9.8577 19.1518 24.2979
 O 20.4208 11.8064 0.80544
 O 9.37119 13.15 9.99387
 O 22.2844 6.20245 24.4996
 O 13.1261 6.87804 19.0251
 O 2.24523 9.83396 10.2721
 O 20.2447 12.5386 10.7852
 O 18.7668 0.828126 10.9545
 O 18.8125 16.2409 13.3222
 O 23.3379 1.38247 22.5209
 O 3.53925 16.3886 21.2701
 O 10.4994 20.0872 21.7043
 O 22.6937 14.9632 15.73
 O 2.55294 18.7978 22.2939
 O 23.9772 15.0231 23.7217
 O 0.417302 7.16951 7.40087
 O 19.4371 19.9142 15.8402
 O 24.785 5.99912 20.1939
 O 1.97396 12.6763 7.78754
 O 22.4603 10.6463 14.9134
 O 11.372 2.73755 7.53425
 O 17.3808 1.08774 19.0068
 O 3.14621 15.7137 3.66073
 O 9.51486 4.28328 11.8737
 O 23.1639 23.9487 11.17
 O 20.7207 10.5514 13.0302
 O 9.83823 0.427025 22.8628
 O 17.5691 9.68516 4.45167
 O 3.83132 23.9232 14.3502
 O 20.9872 1.87821 23.0157
 O 8.19908 15.3176 9.59592
 O 22.0331 8.88713 16.8365
 O 21.085 23.0265 1.08617
 O 8.14467 0.0219281 8.23686
 O 5.0123 22.0898 1.68599
 O 14.7175 14.7509 14.1931
 O 15.7488 7.28927 24.0827
 O 0.0823042 5.56839 3.75684
 O 15.0436 0.518397 4.80483
 O 7.96241 8.21307 18.9417
 O 9.21702 17.9842 20.8182
 O 10.8525 10.7433 13.7091
 O 23.1258 0.894038 16.0053
 O 7.68074 10.703 18.8866
 O 16.046 7.51868 20.0614
 O 23.0984 12.7402 23.6688
 Si  14.0417 11.4661 12.2468
 Si  12.1212 1.25863 7.89934
 Si  15.5499 16.3713 19.0066
 Si  18.4261 9.51633 16.3468
 Si  21.0106 19.4618 2.62134
 Si  14.6469 20.1407 11.1092
 Si  6.21759 18.8758 3.09305
 Si  23.6393 24.6191 14.9502
 Si  18.6169 8.33029 0.894738
 Si  18.2309 23.4114 22.1313
 Si  7.86426 8.43644 22.7998
 Si  7.16452 14.4388 20.534
 Si  20.9926 22.5649 2.36197
 Si  11.7831 2.54856 5.45729
 Si  2.82926 2.60991 19.2945
 Si  3.3835 17.7935 3.76322
 Si  3.51655 22.4868 2.06147
 Si  19.7395 8.16172 18.6027
 Si  5.56504 11.9664 11.6718
 Si  24.0828 16.8804 22.9998
 Si  12.1454 21.9929 9.96099
 Si  22.0764 4.80937 0.436067
 Si  2.08408 3.38157 14.2972
 Si  7.84112 9.93027 14.6488
 Si  7.32138 9.63033 6.12017
 Si  4.25173 3.05544 16.4522
 Si  8.15645 24.2252 1.49951
 Si  1.82302 14.168 14.3549
 Si  20.0966 22.6705 18.6913
 Si  4.41766 14.5363 9.92584
 Si  9.88463 20.2376 5.4543
 Si  10.434 16.0178 6.47797
 Si  15.6263 1.26417 18.8019
 Si  20.6095 9.43626 4.9912
 Si  24.1682 17.7104 12.8543
 Si  2.99516 21.7251 19.1548
 Si  4.06347 0.227485 8.91856
 Si  23.2524 21.4885 4.56505
 Si  18.8686 0.726416 19.5185
 Si  2.29429 20.4001 23.0937
 Si  20.3269 3.15756 13.9658
 Si  7.74954 15.7365 13.4799
 Si  0.843604 22.8442 17.4278
 Si  3.53248 12.1199 8.12318
 Si  4.57952 10.985 23.0197
 Si  12.7437 17.393 8.05724
 Si  9.44007 7.43296 2.81438
 Si  17.4481 22.8604 15.0444
 Si  12.6268 5.07019 24.259
 Si  24.6093 17.3482 18.0035
 Si  2.66833 0.266392 22.4167
 Si  22.5421 13.7509 7.60691
 Si  10.1692 20.5199 23.3937
 Si  14.6061 7.29297 11.7867
 Si  11.3498 24.2216 1.23925
 Si  15.3068 3.15016 10.5099
 Si  1.13878 22.2553 6.20858
 Si  23.8024 1.70574 20.921
 Si  18.4849 10.9915 4.05782
 Si  20.0484 24.3139 15.0517
 Si  21.5377 14.6295 14.4679
 Si  10.8838 14.4555 9.14022
 Si  6.42588 22.1294 2.01766
 Si  23.7159 6.59688 23.6063
 Si  22.947 3.67757 10.3269
 Si  22.4349 17.0274 6.82722
 Si  15.5505 0.768361 3.1889
 Si  21.5969 9.65535 11.7473
 Si  0.604862 16.8707 6.7313
 Si  10.5289 24.7397 11.1021
 Si  15.2481 8.90158 9.70602
 Si  0.110745 9.2693 5.29555
 Si  19.6713 23.4069 8.49839
 Si  5.26133 18.0505 17.7901
 Si  18.8168 5.25345 0.327195
 Si  1.45153 24.0626 8.94967
 Si  13.9876 23.079 7.55289
 Si  23.6087 7.3401 7.36648
 Si  8.42343 20.7604 15.2334
 Si  9.01796 5.21838 15.9439
 Si  10.8067 10.4821 15.4132
 Si  24.0086 6.88369 19.1873
 Si  18.163 18.6942 1.71767
 Si  0.0667068 2.08201 8.35702
 Si  24.612 21.8601 23.9104
 Si  6.24649 17.5721 0.247187
 Si  23.2486 9.88997 8.98124
 Si  10.7871 5.39043 6.61114
 Si  10.0279 20.3164 8.50986
 Si  13.8008 12.5365 21.5664
 Si  11.1412 10.657 21.0781
 Si  20.9801 18.1029 22.4831
 Si  12.9591 1.19442 10.6942
 Si  19.412 2.92749 22.9302
 Si  14.8065 11.3327 15.6894
 Si  15.5247 11.6633 3.19065
 Si  15.7443 5.64646 8.93305
 Si  12.8219 22.0257 0.296811
 Si  16.0199 20.0591 21.4788
 Si  4.00359 6.49115 0.929036
 Si  8.2356 18.3544 9.96684
 Si  5.73281 8.91012 24.6455
 Si  7.29222 1.54653 20.467
 Si  19.1942 20.5454 8.49146
 Si  21.3538 17.2311 12.7358
 Si  5.8473 4.50753 20.8655
 Si  19.5483 14.6549 16.7618
 Si  7.57516 10.1322 2.3636
 Si  2.35951 16.484 0.830039
 Si  22.5448 0.687044 12.3056
 Si  1.90161 19.91 1.30832
 Si  5.49814 5.03462 8.02763
 Si  3.53144 1.79464 3.51146
 Si  15.4793 8.14812 16.2834
 Si  0.969513 1.86985 1.37773
 Si  8.31562 14.611 16.4397
 Si  21.7469 11.6921 13.9318
 Si  17.2067 13.2 22.7392
 Si  14.4823 0.908386 6.17536
 Si  3.0166 17.0292 15.1618
 Si  17.4964 6.70371 12.6698
 Si  4.99953 0.0921044 14.1585
 Si  17.8978 1.43489 9.74209
 Si  18.1335 17.4842 18.4796
 Si  7.41853 21.9497 23.189
 Si  9.97666 2.86597 22.0711
 Si  18.7596 20.0557 17.418
 Si  18.9054 10.9487 6.75634
 Si  2.27705 9.23911 21.9504
 Si  6.65862 14.6589 6.43205
 Si  19.2626 7.58792 10.4303
 Si  0.853226 19.4353 3.35804
 Si  1.3351 7.90339 24.6874
 Si  15.749 17.4202 23.1414
 Si  4.26677 12.4934 14.6836
 Si  22.6209 23.4145 16.8405
 Si  7.7016 18.6524 13.0303
 Si  1.14386 23.9022 0.465244
 Si  4.31801 7.93531 16.8154
 Si  18.3015 4.98512 7.24968
 Si  9.68966 18.4713 3.02321
 Si  5.92269 5.24555 17.5342
 Si  1.62497 13.9147 11.1897
 Si  15.3884 5.32675 24.2352
 Si  7.51758 1.97161 0.559066
 Si  21.1994 19.7031 5.8017
 Si  16.7994 22.1256 8.99832
 Si  19.3727 4.4329 2.69524
 Si  3.24702 4.20891 22.0108
 Si  10.686 7.42291 16.3926
 Si  18.9086 12.1213 18.154
 Si  16.5026 8.70264 3.41855
 Si  1.78483 19.451 7.363
 Si  21.8165 15.2833 18.7863
 Si  20.0467 3.27633 10.5823
 Si  19.0663 17.7013 9.99216
 Si  13.287 7.97339 17.9431
 Si  24.273 9.1299 2.12908
 Si  2.00204 2.64299 23.7548
 Si  3.61566 4.26973 5.61667
 Si  15.4393 4.3396 18.5425
 Si  19.1974 22.239 13.3539
 Si  5.48634 10.8876 16.5246
 Si  2.60862 17.1762 22.2852
 Si  24.2483 23.677 21.5683
 Si  17.0037 19.9247 4.3199
 Si  2.91655 20.8677 11.7274
 Si  10.5637 9.66922 2.47946
 Si  3.31614 17.4069 9.06282
 Si  10.5084 23.5323 6.27112
 Si  6.96561 21.8847 5.10779
 Si  12.2428 12.7984 17.128
 Si  5.40641 15.3208 0.511079
 Si  15.2047 22.9148 23.0354
 Si  0.0987917 4.99073 21.6399
 Si  2.48948 5.52202 10.0099
 Si  8.07646 19.2994 17.8824
 Si  0.00984233 7.88486 14.4424
 Si  16.6346 11.9036 20.2574
 Si  12.8549 8.37144 22.6011
 Si  13.7021 6.86908 7.12149
 Si  17.7373 17.3502 13.1183
 Si  10.0901 3.48302 8.46457
 Si  7.42243 13.2031 1.31839
 Si  1.92312 12.6386 22.6226
 Si  16.7578 8.53648 23.5571
 Si  1.10299 13.8158 6.85911
 Si  23.3774 5.82155 3.15863
 Si  19.783 24.7475 5.56855
 Si  5.26224 3.69216 1.48144
 Si  5.76364 12.2204 6.45738
 Si  10.5369 10.9356 7.26302
 Si  10.6738 13.2778 2.53849
 Si  17.2349 16.595 7.65348
 Si  6.72995 15.8812 9.05422
 Si  0.253142 5.43353 12.2566
 Si  6.77676 6.63623 12.2867
 Si  9.56279 7.78579 19.3338
 Si  18.4743 13.5729 10.8737
 Si  5.60837 15.3475 15.4545
 Si  22.8697 18.9425 24.6914
 Si  17.4 1.67024 21.9113
 Si  24.3956 13.6527 23.178
 Si  7.32002 9.69774 11.7964
 Si  4.02803 23.9694 4.71346
 Si  17.3792 17.7378 5.31386
 Si  0.0225311 20.7796 10.3801
 Si  1.02166 10.6825 10.3532
 Si  1.59857 24.5217 20.1138
 Si  15.3942 3.56937 1.9545
 Si  15.9846 13.9032 15.1007
 Si  13.9051 12.6449 5.98779
 Si  9.8179 3.99981 1.42099
 Si  20.5472 23.1844 24.1256
 Si  14.4626 6.08439 4.17456
 Si  22.6318 1.59212 6.02308
 Si  11.2031 17.1895 10.2741
 Si  16.7984 16.3717 0.307938
 Si  22.4421 9.16156 20.3838
 Si  13.2845 24.13 13.4194
 Si  22.2958 1.93741 23.7637
 Si  1.06841 13.9678 19.9281
 Si  9.87907 0.00743567 14.0124
 Si  17.0499 10.7164 11.438
 Si  9.48113 5.61539 12.9574
 Si  18.8109 14.6972 13.6395
 Si  10.3237 4.27458 23.9286
 Si  8.69768 23.4462 8.71712
 Si  0.590113 20.4485 18.4428
 Si  11.2252 10.2231 12.2868
 Si  22.0692 8.96811 23.0947
 Si  24.5511 10.8465 18.9506
 Si  7.89688 9.41837 19.7906
 Si  23.857 22.593 10.798
 Si  8.25751 7.05552 5.38348
 Si  13.0587 17.4619 15.5544
 Si  11.8717 5.94729 2.79199
 Si  3.88965 9.82472 10.0971
 Si  19.7144 19.0841 14.4661
 Si  13.8271 20.7902 5.73887
 Si  4.35637 18.2396 12.5957
 Si  13.7621 18.5147 20.7775
 Si  9.05406 16.967 19.6013
 Si  10.7958 9.1321 24.4644
 Si  14.3036 18.5332 3.96875
 Si  0.420772 16.7124 10.1035
 Si  11.3479 7.18311 12.0588
 Si  11.0804 13.3763 5.192
 Si  6.73038 13.0163 22.9951
 Si  10.7357 18.5559 21.4343
 Si  13.0588 1.79981 2.39249
 Si  12.3985 4.68443 14.0855
 Si  5.67091 4.48278 10.6929
 Si  5.73179 22.2801 6.85945
 Si  22.3959 21.7897 19.6219
 Si  14.7397 6.84799 20.0605
 Si  7.79774 23.709 15.1328
 Si  24.5436 20.4235 13.6736
 Si  20.2385 20.9404 20.8958
 Si  24.0436 15.6475 15.3528
 Si  19.8066 24.5508 11.295
 Si  14.1902 10.5132 23.9706
 Si  11.38 22.5707 15.0805
 Si  15.5626 16.4196 16.4676
 Si  15.7644 22.1424 12.2995
 Si  6.81887 0.928074 8.81956
 Si  13.4864 9.90032 7.61807
 Si  1.66723 8.54627 18.8644
 Si  10.9591 15.629 17.4524
 Si  8.2652 0.257197 22.7454
 Si  8.6906 5.69683 21.4421
 Si  15.21 15.5964 12.6487
 Si  21.8646 1.60413 15.891
 Si  11.037 4.4384 10.9797
 Si  4.23445 7.77924 8.1475
 Si  4.32828 15.6825 19.9143
 Si  23.7911 10.0391 12.4763
 Si  11.6592 11.9523 0.375926
 Si  17.9492 8.66144 7.92783
 Si  14.4825 14.721 8.00424
 Si  15.5923 13.7536 0.746278
 Si  2.90874 3.05026 8.34098
 Si  10.5703 2.80433 15.992
 Si  5.15466 20.2142 23.161
 Si  9.35283 11.5224 10.2128
 Si  9.12567 18.1824 0.50755
 Si  15.1608 5.02676 15.2353
 Si  1.88821 6.98847 6.10219
 Si  21.6588 11.8587 19.2759
 Si  19.871 12.7508 21.5997
 Si  18.2036 4.41347 16.7094
 Si  15.2617 13.6746 10.525
 Si  2.73367 7.77199 14.1317
 Si  12.6274 18.6651 1.46331
 Si  15.4569 19.2207 8.12519
 Si  8.28983 16.6829 4.55466
 Si  7.6156 2.72293 6.91155
 Si  2.29255 22.3081 14.8743
 Si  12.5331 14.5015 24.5625
 Si  20.0939 12.8317 9.1838
 Si  21.37 12.0854 24.173
 Si  21.4535 4.5295 7.18526
 Si  7.30074 12.4992 18.1146
 Si  3.52842 14.5508 4.62656
 Si  20.2341 3.13665 18.1043
 Si  21.5807 5.91498 18.0728
 Si  9.18772 0.793431 4.39913
 Si  11.3752 0.665358 23.0349
 Si  4.22933 21.9186 9.45075
 Si  15.1612 14.7959 21.4011
 Si  16.0818 21.3924 17.4889
 Si  3.92768 20.499 16.5381
 Si  6.98628 24.5611 17.8732
 Si  5.45746 5.49541 3.90043
 Si  12.8631 20.4724 16.8385
 Si  16.8899 3.60236 13.0897
 Si  8.00381 21.7694 20.1539
 Si  17.1401 8.70791 20.3152
 Si  5.64107 22.3464 18.4846
 Si  20.0586 6.05754 14.7343
 Si  23.063 11.2673 6.28009
 Si  22.0474 7.59516 15.8914
 Si  4.20701 5.30904 12.7647
 Si  20.6755 6.27607 4.55553
 Si  17.5454 23.3004 4.15561
 Si  17.8367 1.97543 6.57772
 Si  21.3557 10.3818 1.02338
 Si  4.65468 2.20535 11.9066
 Si  19.3628 10.6174 13.7486
 Si  11.4963 17.3893 24.1877
 Si  13.0547 17.4972 12.3614
 Si  22.906 10.2278 16.4395
 Si  13.428 0.906223 16.3822
 Si  14.1803 0.504089 21.3723
 Si  19.8775 15.9212 20.882
 Si  7.5426 13.9476 10.7007
